:MDSTEP: 5
:R:
  7.9827970550E+00   7.9833271055E+00   7.9672324748E+00
  4.0186379621E+00   5.9097309660E-03   4.0443497436E+00
  1.5624582712E-03   3.9853313177E+00   3.9914869035E+00
  3.9970025246E+00   4.0254318459E+00   7.9969308781E+00
:V:
 -1.0288273022E-04  -9.9833992489E-05  -1.9580728559E-04
  1.1150078302E-04   3.5781380375E-05   2.6536142618E-04
  9.8062534549E-06  -8.8380704815E-05  -5.2093634302E-05
 -1.8424306250E-05   1.5243331693E-04  -1.7460506288E-05
:TEL:   3.0634908732E+02
:TIO:   3.0634908732E+02
