:MDSTEP: 5
:R:
  7.9827927113E+00   7.9833227791E+00   7.9672242731E+00
  4.0186426907E+00   5.9115005206E-03   4.0443610328E+00
  1.5631341338E-03   3.9853272160E+00   3.9914840992E+00
  3.9970014639E+00   4.0254385044E+00   7.9969305949E+00
:V:
 -1.0298629653E-04  -9.9935426136E-05  -1.9600459617E-04
  1.1161319282E-04   3.5818778156E-05   2.6562960093E-04
  9.8173470087E-06  -8.8471436998E-05  -5.2148522380E-05
 -1.8444243290E-05   1.5258808498E-04  -1.7476482375E-05
:TEL:   3.0696953357E+02
:TIO:   3.0696953357E+02
