:RELAXSTEP: 53
:R:
  4.8416056079E+00   4.6523101361E+00   6.0113454586E+00
  8.4159043608E-01   4.6524138663E+00   2.0112951293E+00
  4.8414820471E+00   6.5235992601E-01   2.0113072678E+00
  8.4152054327E-01   6.5236561022E-01   6.0113049678E+00
:ISFD: 0
:ISRESET: 0
:STEP: 2
:DX:
 -6.7063169136E-02
  3.4892232223E-02
  7.7021365932E-02
 -3.2058412976E-02
 -9.0143376952E-02
 -4.0002675835E-02
  1.1265456308E-01
  5.1494603110E-02
  7.6994199150E-03
 -1.3532980968E-02
  3.7565416190E-03
 -4.4718110012E-02
  6.7010965807E-02
 -3.4860024540E-02
 -7.6974423080E-02
  3.2044185254E-02
  9.0091384450E-02
  3.9980423597E-02
 -1.1258608647E-01
 -5.1468646235E-02
 -7.6891792726E-03
  1.3530935414E-02
 -3.7627136754E-03
  4.4683178755E-02
 -1.4542916089E-02
  8.6199820649E-03
  1.1224393375E-02
 -6.1563852222E-03
 -1.3583036767E-02
 -6.9098530960E-04
  1.2118357897E-02
  1.6778053351E-02
  2.5974024534E-03
  8.5809434146E-03
 -1.1814998649E-02
 -1.3130810519E-02
 -7.7939451796E-03
 -6.3871286618E-04
  2.0575040143E-03
 -8.0723591823E-05
 -8.3816293932E-03
  2.7415364933E-03
  1.7331110406E-03
  1.0715447358E-02
  3.4500448081E-03
  6.1415577308E-03
 -1.6951050988E-03
 -8.2490853156E-03
  8.5619012410E-04
 -8.6872622373E-04
 -1.7390085708E-04
  4.0570473826E-04
  4.9753850874E-05
 -2.2087559397E-04
 -7.9578152572E-04
 -5.9559522155E-04
 -2.8470639060E-04
 -4.6611333664E-04
  1.4145675944E-03
  6.7948284164E-04
  6.4674458875E-05
  1.0076529423E-04
  1.5412264953E-04
  4.2131405981E-05
  7.0261258942E-05
 -1.2715335062E-04
  1.0696689279E-05
 -1.6378508564E-04
 -5.9546315438E-06
 -1.1750255413E-04
 -7.2414675364E-06
 -2.1014667372E-05
 -6.2240203795E-05
  2.2953595089E-04
  4.8592255733E-04
  1.3958481745E-05
 -5.8426312294E-05
 -3.0525511072E-04
  1.9001821956E-04
 -6.0255462675E-05
 -6.4951774603E-06
 -1.4173649751E-04
 -1.1085417592E-04
 -1.7417226915E-04
 -4.6130508098E-05
 -5.4236693239E-05
 -6.2748767401E-05
 -1.8656769941E-05
 -3.8219206535E-05
  5.2190545627E-05
  2.3372193732E-05
  8.3056963352E-05
  7.8345677577E-06
  4.1415084307E-05
  9.3989364218E-06
  2.7236540161E-06
  0.0000000000E+00
  0.0000000000E+00
  0.0000000000E+00
  0.0000000000E+00
  0.0000000000E+00
  0.0000000000E+00
  0.0000000000E+00
  0.0000000000E+00
  0.0000000000E+00
  0.0000000000E+00
  0.0000000000E+00
  0.0000000000E+00
  0.0000000000E+00
  0.0000000000E+00
  0.0000000000E+00
  0.0000000000E+00
  0.0000000000E+00
  0.0000000000E+00
  0.0000000000E+00
  0.0000000000E+00
  0.0000000000E+00
  0.0000000000E+00
  0.0000000000E+00
  0.0000000000E+00
  0.0000000000E+00
  0.0000000000E+00
  0.0000000000E+00
  0.0000000000E+00
  0.0000000000E+00
  0.0000000000E+00
  0.0000000000E+00
  0.0000000000E+00
  0.0000000000E+00
  0.0000000000E+00
  0.0000000000E+00
  0.0000000000E+00
  0.0000000000E+00
  0.0000000000E+00
  0.0000000000E+00
  0.0000000000E+00
  0.0000000000E+00
  0.0000000000E+00
  0.0000000000E+00
  0.0000000000E+00
  0.0000000000E+00
  0.0000000000E+00
  0.0000000000E+00
  0.0000000000E+00
  0.0000000000E+00
  0.0000000000E+00
  0.0000000000E+00
  0.0000000000E+00
  0.0000000000E+00
  0.0000000000E+00
  0.0000000000E+00
  0.0000000000E+00
  0.0000000000E+00
  0.0000000000E+00
  0.0000000000E+00
  0.0000000000E+00
  0.0000000000E+00
  0.0000000000E+00
  0.0000000000E+00
  0.0000000000E+00
  0.0000000000E+00
  0.0000000000E+00
  0.0000000000E+00
  0.0000000000E+00
  0.0000000000E+00
  0.0000000000E+00
  0.0000000000E+00
  0.0000000000E+00
  0.0000000000E+00
  0.0000000000E+00
  0.0000000000E+00
  0.0000000000E+00
  0.0000000000E+00
  0.0000000000E+00
  0.0000000000E+00
  0.0000000000E+00
  0.0000000000E+00
  0.0000000000E+00
  0.0000000000E+00
  0.0000000000E+00
  0.0000000000E+00
  0.0000000000E+00
  0.0000000000E+00
  0.0000000000E+00
  0.0000000000E+00
  0.0000000000E+00
  0.0000000000E+00
  0.0000000000E+00
  0.0000000000E+00
  0.0000000000E+00
  0.0000000000E+00
  0.0000000000E+00
  0.0000000000E+00
  0.0000000000E+00
  0.0000000000E+00
  0.0000000000E+00
  0.0000000000E+00
  0.0000000000E+00
  0.0000000000E+00
  0.0000000000E+00
  0.0000000000E+00
  0.0000000000E+00
  0.0000000000E+00
  0.0000000000E+00
  0.0000000000E+00
  0.0000000000E+00
  0.0000000000E+00
  0.0000000000E+00
  0.0000000000E+00
  0.0000000000E+00
  0.0000000000E+00
  0.0000000000E+00
  0.0000000000E+00
  0.0000000000E+00
  0.0000000000E+00
  0.0000000000E+00
  0.0000000000E+00
  0.0000000000E+00
  0.0000000000E+00
  0.0000000000E+00
  0.0000000000E+00
  0.0000000000E+00
  0.0000000000E+00
  0.0000000000E+00
  0.0000000000E+00
  0.0000000000E+00
  0.0000000000E+00
  0.0000000000E+00
  0.0000000000E+00
  0.0000000000E+00
  0.0000000000E+00
  0.0000000000E+00
  0.0000000000E+00
  0.0000000000E+00
  0.0000000000E+00
  0.0000000000E+00
  0.0000000000E+00
  0.0000000000E+00
  0.0000000000E+00
  0.0000000000E+00
:DG:
 -1.3151641421E-03
 -4.3663558670E-05
  3.3872450400E-03
 -2.1759178826E-03
 -4.3895165689E-03
 -2.0662431542E-03
  4.9808471359E-03
  3.0475267173E-03
 -4.6160686817E-04
 -1.4897651112E-03
  1.3856534103E-03
 -8.5939501754E-04
  1.3141934655E-03
  4.4057128239E-05
 -3.3855883518E-03
  2.1756860032E-03
  4.3883261745E-03
  2.0652671204E-03
 -4.9793847848E-03
 -3.0466290123E-03
  4.6163698709E-04
  1.4895053160E-03
 -1.3857542904E-03
  8.5868424438E-04
 -5.5479311305E-04
  2.3584864314E-04
  3.8993742976E-04
 -1.8052203829E-04
 -5.9720847029E-04
 -4.5883157601E-05
  4.2524297089E-04
  6.4963395709E-04
  1.0208862909E-04
  3.1007218045E-04
 -2.8827412993E-04
 -4.4614290125E-04
 -4.3417539811E-04
 -2.3095833597E-04
 -8.9892157998E-05
  1.3180603795E-04
 -4.8025018604E-04
  2.6186051400E-04
 -6.7739556522E-05
  6.1273551416E-04
  2.7316858950E-04
  3.7010891669E-04
  9.8473007849E-05
 -4.4513694550E-04
  4.2996321563E-05
 -6.4155668563E-05
  1.2874685868E-05
  9.9411057772E-06
 -4.0037676226E-05
 -1.9132227293E-05
 -3.9524653464E-05
  2.3277829091E-06
 -2.8748998058E-05
 -1.3412773876E-05
  1.0186556188E-04
  3.5006539483E-05
  7.0454199413E-06
  8.3479292342E-06
  1.9335137178E-06
  3.4996985193E-06
  9.3989735141E-06
 -2.0106097217E-06
 -4.4507200584E-06
 -1.5558030254E-05
  1.8023074648E-06
 -6.0943984023E-06
 -2.1888724945E-06
 -1.7252114609E-06
  1.9849649264E-06
  9.7582717202E-06
  1.7893500794E-05
  3.4002478085E-06
  2.2180231815E-06
 -1.2426853686E-05
  2.1081124652E-06
 -8.7934178468E-06
  7.2366538279E-08
 -7.4933252001E-06
 -3.1828770549E-06
 -5.5390136464E-06
 -3.1348703996E-06
 -5.4734530157E-06
 -3.3217263429E-06
 -1.4302677999E-06
 -3.0357386998E-06
  2.3715991705E-06
  2.1749490461E-06
  6.8588460974E-06
 -2.7145407048E-07
  2.3901891534E-06
  1.6503456180E-06
  1.2215812429E-06
  0.0000000000E+00
  0.0000000000E+00
  0.0000000000E+00
  0.0000000000E+00
  0.0000000000E+00
  0.0000000000E+00
  0.0000000000E+00
  0.0000000000E+00
  0.0000000000E+00
  0.0000000000E+00
  0.0000000000E+00
  0.0000000000E+00
  0.0000000000E+00
  0.0000000000E+00
  0.0000000000E+00
  0.0000000000E+00
  0.0000000000E+00
  0.0000000000E+00
  0.0000000000E+00
  0.0000000000E+00
  0.0000000000E+00
  0.0000000000E+00
  0.0000000000E+00
  0.0000000000E+00
  0.0000000000E+00
  0.0000000000E+00
  0.0000000000E+00
  0.0000000000E+00
  0.0000000000E+00
  0.0000000000E+00
  0.0000000000E+00
  0.0000000000E+00
  0.0000000000E+00
  0.0000000000E+00
  0.0000000000E+00
  0.0000000000E+00
  0.0000000000E+00
  0.0000000000E+00
  0.0000000000E+00
  0.0000000000E+00
  0.0000000000E+00
  0.0000000000E+00
  0.0000000000E+00
  0.0000000000E+00
  0.0000000000E+00
  0.0000000000E+00
  0.0000000000E+00
  0.0000000000E+00
  0.0000000000E+00
  0.0000000000E+00
  0.0000000000E+00
  0.0000000000E+00
  0.0000000000E+00
  0.0000000000E+00
  0.0000000000E+00
  0.0000000000E+00
  0.0000000000E+00
  0.0000000000E+00
  0.0000000000E+00
  0.0000000000E+00
  0.0000000000E+00
  0.0000000000E+00
  0.0000000000E+00
  0.0000000000E+00
  0.0000000000E+00
  0.0000000000E+00
  0.0000000000E+00
  0.0000000000E+00
  0.0000000000E+00
  0.0000000000E+00
  0.0000000000E+00
  0.0000000000E+00
  0.0000000000E+00
  0.0000000000E+00
  0.0000000000E+00
  0.0000000000E+00
  0.0000000000E+00
  0.0000000000E+00
  0.0000000000E+00
  0.0000000000E+00
  0.0000000000E+00
  0.0000000000E+00
  0.0000000000E+00
  0.0000000000E+00
  0.0000000000E+00
  0.0000000000E+00
  0.0000000000E+00
  0.0000000000E+00
  0.0000000000E+00
  0.0000000000E+00
  0.0000000000E+00
  0.0000000000E+00
  0.0000000000E+00
  0.0000000000E+00
  0.0000000000E+00
  0.0000000000E+00
  0.0000000000E+00
  0.0000000000E+00
  0.0000000000E+00
  0.0000000000E+00
  0.0000000000E+00
  0.0000000000E+00
  0.0000000000E+00
  0.0000000000E+00
  0.0000000000E+00
  0.0000000000E+00
  0.0000000000E+00
  0.0000000000E+00
  0.0000000000E+00
  0.0000000000E+00
  0.0000000000E+00
  0.0000000000E+00
  0.0000000000E+00
  0.0000000000E+00
  0.0000000000E+00
  0.0000000000E+00
  0.0000000000E+00
  0.0000000000E+00
  0.0000000000E+00
  0.0000000000E+00
  0.0000000000E+00
  0.0000000000E+00
  0.0000000000E+00
  0.0000000000E+00
  0.0000000000E+00
  0.0000000000E+00
  0.0000000000E+00
  0.0000000000E+00
  0.0000000000E+00
  0.0000000000E+00
  0.0000000000E+00
  0.0000000000E+00
  0.0000000000E+00
  0.0000000000E+00
  0.0000000000E+00
  0.0000000000E+00
  0.0000000000E+00
  0.0000000000E+00
  0.0000000000E+00
  0.0000000000E+00
  0.0000000000E+00
  0.0000000000E+00
  0.0000000000E+00
  0.0000000000E+00
:IYS:
  5.9738856894E+02
  5.9795200835E+02
  1.9239650022E+04
  4.7063439338E+04
  3.2366615824E+06
  1.6902252338E+08
  5.6078852679E+07
  6.0510628958E+08
  0.0000000000E+00
  0.0000000000E+00
  0.0000000000E+00
  0.0000000000E+00
  0.0000000000E+00
  0.0000000000E+00
  0.0000000000E+00
  0.0000000000E+00
  0.0000000000E+00
  0.0000000000E+00
  0.0000000000E+00
  0.0000000000E+00
:FOLD:
 -6.5791703539E-07
  4.5376985331E-07
  2.1373504821E-07
 -5.4664228832E-07
 -9.9868982748E-07
  4.5900431374E-09
  1.2734053528E-06
  3.5281418456E-07
  1.5685742246E-07
 -6.8846029135E-08
  1.9210578961E-07
 -3.7518251381E-07
:RDISP:
 -2.0210829885E-05
  1.3742127709E-05
  1.1853708905E-05
 -8.4043280453E-06
 -2.1704663063E-05
 -3.9765794302E-06
  2.8741894053E-05
  8.3930510016E-06
  4.8867789402E-06
 -1.2673612293E-07
 -4.3051564647E-07
 -1.2763908416E-05
