:RELAXSTEP: 56
:R:
  4.8415342397E+00   4.6523845037E+00   6.0113327611E+00
  8.4156226265E-01   4.6523522796E+00   2.0113115599E+00
  4.8415394755E+00   6.5236789972E-01   2.0113176264E+00
  8.4156265659E-01   6.5234485564E-01   6.0112908762E+00
:ISFD: 0
:ISRESET: 0
:STEP: 30
:DX:
  4.0130530095E-04
 -4.6681763954E-04
  1.2807245544E-03
  1.2623312235E-04
  5.5618088814E-04
 -2.2222574536E-07
 -8.5527942820E-05
 -6.0963001584E-04
 -5.3826281542E-05
 -4.4201048049E-04
  5.2026676724E-04
 -1.2266760471E-03
 -2.4844910652E-04
  3.8217317161E-04
 -9.8005858516E-04
 -1.6259112888E-04
 -4.3282979343E-04
  2.6789891710E-05
  1.2261427326E-04
  4.7850820515E-04
  4.8510747205E-05
  2.8842596213E-04
 -4.2785158333E-04
  9.0475794624E-04
 -1.1488520660E-04
  2.1835178466E-04
 -2.2848749683E-04
  1.5592289312E-04
 -5.6043417820E-05
 -5.5804935569E-05
 -1.9244646494E-04
  6.2962234725E-06
 -5.0765684599E-05
  1.5140877842E-04
 -1.6860459031E-04
  3.3505811700E-04
  7.4596684988E-05
 -1.9135939447E-04
  2.2504068730E-04
 -1.1008795893E-04
  3.8700176479E-05
  3.9966854179E-05
  1.4456364466E-04
  3.1912819509E-07
  4.5476419759E-05
 -1.0907237072E-04
  1.5234008980E-04
 -3.1048396124E-04
 -3.0405561331E-06
  9.5259802038E-06
  2.9512748467E-05
  7.0245797680E-06
  1.0887655524E-06
 -2.4409955350E-06
 -6.4871583234E-06
 -4.0605990524E-06
  2.2772913066E-06
  2.5031346886E-06
 -6.5541467035E-06
 -2.9349044238E-05
 -1.7610404105E-04
  3.2936475778E-04
  4.3412312024E-04
  1.7627727039E-04
 -1.6748131290E-04
 -8.9611979352E-05
 -1.6500173934E-04
  7.6243123871E-05
  8.9214932733E-05
  1.6482851001E-04
 -2.3812656875E-04
 -4.3372607362E-04
  1.1672366755E-04
 -2.4023218552E-04
 -3.6847371793E-04
 -1.3035820575E-04
  1.1968100847E-04
  6.2715163509E-05
  1.2376142026E-04
 -4.7493667602E-05
 -6.8092465815E-05
 -1.1012688207E-04
  1.6804484466E-04
  3.7385102023E-04
  4.5569460983E-05
 -6.8872596832E-05
 -1.0509596838E-04
 -4.1821132721E-05
  2.0780621211E-05
  2.0421675605E-05
  3.7028673550E-05
 -5.6560992029E-06
 -1.6120107045E-05
 -4.0777001813E-05
  5.3748074823E-05
  1.0079439982E-04
 -3.9029375993E-05
  5.7400381658E-05
  4.1593624098E-05
  2.9959854039E-05
 -3.1440940672E-05
 -1.5092852154E-05
 -2.7907183788E-05
  1.9330354440E-05
  1.3128133551E-05
  3.6976705742E-05
 -4.5289795426E-05
 -3.9628905493E-05
 -2.4061104208E-05
  2.8082123012E-05
 -1.0660577336E-05
  1.3360469968E-05
 -2.3057212695E-05
 -5.4559122873E-06
 -1.1459181833E-05
  1.9773338148E-05
  7.1200291365E-06
  2.2159816072E-05
 -2.4798248465E-05
  8.9964604868E-06
 -9.0026520080E-05
  1.0714729933E-04
 -8.9858403475E-05
  4.3168991107E-05
 -1.0047143257E-04
 -1.8486854300E-05
 -3.7082269754E-05
  9.1148665806E-05
  2.7242386732E-05
  8.3939798728E-05
 -9.7824532569E-05
  8.1102871044E-05
 -2.1657764266E-05
  6.0076638579E-06
 -4.7535959140E-05
 -1.5989358604E-07
 -1.1652032343E-05
  3.6336184341E-06
  6.1302207905E-06
  1.8295292148E-05
 -1.1580327364E-06
  1.5687437062E-05
 -1.2650923663E-05
  4.5060373441E-05
  2.2810297152E-05
 -6.6153776495E-05
 -6.9363465466E-05
 -3.5940721440E-05
  3.0162248564E-05
  1.8856675906E-05
  4.0816601405E-05
 -8.9400156075E-06
 -1.9995711008E-05
 -2.7686177117E-05
  4.4931543539E-05
  7.0502500567E-05
  9.0008703957E-05
 -1.5318537269E-04
 -1.8511687856E-05
 -7.1509581735E-05
  1.0377540817E-04
  3.3634399090E-05
  7.2654977587E-05
 -7.3061375691E-05
 -4.1350321952E-05
 -9.1154099809E-05
  1.2247134021E-04
  2.6227610713E-05
  7.2699153215E-05
 -5.2696423293E-05
  9.4642645631E-05
 -1.9092808629E-05
  4.4303005587E-05
 -9.9472218684E-07
  2.7714235760E-06
 -5.3678307299E-05
 -7.4337582872E-06
 -5.6377768162E-05
  6.2071725006E-05
 -8.6214165157E-05
  1.0250631469E-04
  1.4677040830E-04
  4.6772259974E-04
  9.5032973656E-05
 -5.4725146994E-05
 -8.7975454989E-05
 -1.7037933946E-04
 -6.3309340411E-05
  7.2441234495E-05
 -2.7159948884E-05
 -2.8735920897E-05
 -4.5218837924E-04
 -1.2962935442E-04
  1.5680782765E-04
 -8.2090341719E-05
  6.6723966674E-05
 -1.1153165323E-04
 -2.2844103493E-05
 -5.1360389089E-05
  1.0033818866E-04
  3.5954582368E-05
  1.1426577684E-04
 -1.4561436309E-04
  6.8979862848E-05
 -1.0064401700E-03
  4.7077235925E-04
 -1.7738818590E-03
  1.0078525842E-04
 -4.5542585281E-04
  1.1865837461E-04
  1.9757650312E-04
  7.2759290986E-04
  1.9254991419E-06
  7.0807840846E-04
 -7.4293941632E-04
  1.6532979852E-03
  7.4165213942E-04
 -4.8748917352E-04
  1.1358437054E-03
 -1.4639215149E-04
  4.1545209100E-04
 -3.2499262883E-05
 -4.0134159175E-05
 -5.5263873312E-04
 -5.0780304453E-05
 -5.5512582876E-04
  6.2467581564E-04
 -1.0525641380E-03
  2.0229270340E-04
 -1.0186517556E-04
  3.6970382740E-04
 -2.0652562336E-05
  9.9806410873E-05
 -2.4600610491E-05
 -3.8479970067E-05
 -1.5539042437E-04
 -9.6602379620E-06
 -1.4316017100E-04
  1.5744918906E-04
 -3.3544297895E-04
:DG:
  1.0413342338E-06
 -6.8407341392E-06
  1.2856325071E-05
  1.0090956497E-05
  2.2176811809E-06
 -7.0783074927E-06
 -8.8541116334E-06
 -7.2763964149E-06
 -1.2664295250E-06
 -2.2781790969E-06
  1.1899449373E-05
 -4.5115880530E-06
  8.4701370361E-06
  6.3403656668E-06
 -1.4010770408E-05
 -1.7225465855E-05
 -1.0222346767E-06
  8.7473990414E-06
  1.5652979250E-05
  5.7788899871E-06
  1.9714422142E-06
 -6.8976504306E-06
 -1.1097020977E-05
  3.2919291525E-06
 -9.8784873569E-06
  1.6447492910E-05
  4.5038253656E-06
  1.8972136319E-05
  7.5826296045E-06
 -5.4210919514E-06
 -2.1655203190E-05
 -1.1547655265E-05
 -6.3792133188E-06
  1.2561554229E-05
 -1.2482467250E-05
  7.2964799047E-06
  6.1678561914E-06
 -1.5929900668E-05
 -3.2517040561E-06
 -1.4335810681E-05
 -7.1780845438E-06
  4.2840693066E-06
  1.6890734474E-05
  1.0646912944E-05
  5.3260306437E-06
 -8.7227799842E-06
  1.2461072268E-05
 -6.3583958942E-06
  7.7077440544E-07
  7.1567671162E-08
  7.5148340559E-07
 -3.9796865864E-07
  1.0298023327E-06
  1.0961631685E-07
  4.0818571695E-07
 -9.5211423618E-07
 -7.6082707194E-08
 -7.8099146375E-07
 -1.4925576769E-07
 -7.8501701525E-07
  4.1282293770E-06
  8.6997811744E-06
  1.7300222199E-05
 -1.2594185797E-06
  6.3281896642E-06
 -1.1899394779E-06
  1.7979946391E-06
 -7.8129190590E-06
  2.0146290970E-06
 -4.6668054363E-06
 -7.2150517796E-06
 -1.8124911818E-05
 -5.2947272751E-06
 -5.6640494279E-06
 -1.3098966219E-05
  2.4592948008E-06
 -5.2560869565E-06
  1.4713389594E-07
 -2.7150272706E-06
  6.3223878733E-06
 -1.6396126828E-06
  5.5504597449E-06
  4.5977485111E-06
  1.4591445006E-05
  2.2519659890E-06
 -3.9283385497E-06
 -5.1211619154E-06
 -2.1031242833E-06
 -1.0636010085E-06
  1.0336388198E-06
  1.7887349299E-06
  1.5378906695E-06
 -5.3661961822E-07
 -1.9375766355E-06
  3.4540488887E-06
  4.6241427138E-06
 -1.4016145631E-06
  2.3366527915E-06
  2.6836395974E-06
  1.2918475077E-06
  1.1073666279E-07
 -6.9832678120E-07
 -1.2444849673E-06
 -5.5070307007E-07
  2.6647484880E-07
  1.3542520226E-06
 -1.8966863842E-06
 -2.2517876651E-06
 -5.4800783315E-07
  3.7951492119E-07
  4.3024980416E-07
  4.5195704460E-07
 -3.4333667160E-08
 -1.1806625505E-07
 -3.9590440254E-07
 -1.3336857444E-08
  7.4723953358E-08
  4.9195519109E-07
 -3.3184439659E-07
 -3.8690750247E-07
 -1.4986901723E-06
  1.0865034110E-06
  3.7149759427E-07
  1.2922367806E-06
 -7.5139966988E-07
 -2.9354151083E-07
 -1.2618358142E-06
  5.6967318700E-07
  2.6981032594E-07
  1.4682892060E-06
 -9.0477692814E-07
 -3.4776640938E-07
 -1.5659085305E-06
 -4.8911876634E-08
 -1.0213818529E-06
  6.5083668591E-07
 -4.6079259291E-08
  2.9979456901E-07
 -2.8829773036E-07
  3.4044163268E-07
 -1.3595648353E-07
  1.2033695750E-06
 -2.4545049675E-07
  8.5754376739E-07
 -1.5274661898E-06
 -1.3461580500E-06
 -3.5501404562E-06
  2.3802645126E-07
 -1.1984467812E-06
  6.0527582243E-07
  5.8976626968E-08
  1.7236961891E-06
 -2.9977192852E-07
  1.2304631116E-06
  8.2090864202E-07
  3.2446365623E-06
  8.7321429586E-07
 -3.3380233398E-06
 -4.9406045065E-06
 -1.7388261567E-06
 -5.7283500245E-07
  9.1765471418E-07
  1.9562521548E-06
  1.4650585525E-06
 -6.6282953051E-07
 -1.0906402940E-06
  2.4457997897E-06
  4.6857793228E-06
  5.7551886231E-06
 -2.1698394808E-06
  1.0046114053E-06
 -3.4960375260E-06
  1.9116344962E-07
 -3.9804928394E-07
  2.4594132490E-06
 -5.8703564184E-07
 -1.7466026866E-07
 -4.7185643461E-06
  2.5657116730E-06
 -4.3190185270E-07
  2.1396968882E-05
  1.2395269948E-07
  1.8403513359E-05
 -9.4719508185E-06
  3.1805167598E-06
 -3.9952391649E-06
  4.7241993477E-06
 -7.2717345321E-06
  1.2769230077E-06
 -1.6649217411E-05
  3.9672650728E-06
 -1.5685197202E-05
 -9.1836569419E-06
  6.4121466606E-06
  3.8993290545E-06
  6.9958154543E-06
  2.8509602550E-07
 -3.9190579685E-07
 -5.7050869576E-06
 -7.0150676333E-07
  8.8960274932E-07
  7.8929284453E-06
 -5.9957359228E-06
 -4.3970260070E-06
 -1.0349994154E-04
  3.3463039308E-05
 -3.8693638889E-05
  6.0475129157E-05
 -8.0060366113E-06
  8.9485347838E-06
 -4.1771331473E-05
  1.7325108897E-05
  1.0880658075E-06
  8.4796143859E-05
 -4.2782111593E-05
  2.8657038297E-05
  7.1807983220E-05
 -2.9059004672E-05
  1.6224602330E-05
 -4.4732035920E-05
  4.1429122238E-06
 -4.0795856881E-06
  3.2582650707E-05
 -8.4368549385E-06
 -1.5348007109E-06
 -5.9658598007E-05
  3.3352947387E-05
 -1.0610215931E-05
  2.0074531000E-05
 -6.5182582493E-06
  8.7987933404E-06
 -1.1718648248E-05
  2.0053319980E-06
 -2.1872873985E-06
  8.0816856862E-06
 -4.0358411922E-06
 -1.0983094670E-06
 -1.6437568437E-05
  8.5487674435E-06
 -5.5131964749E-06
:IYS:
  2.4643305267E+07
  3.5657519434E+07
  5.7462008400E+07
  8.5036851029E+07
  2.3990980927E+10
  6.0346011318E+07
  1.0287396725E+08
  5.5701563905E+08
  1.6694263920E+09
  2.1192832359E+10
  1.5521192438E+09
  6.7142219780E+09
  2.0336086561E+09
  7.3448000023E+08
  8.2947949471E+08
  5.7885931833E+07
  2.4715422928E+08
  2.9161231975E+06
  6.1422486330E+06
  6.9690497438E+07
:FOLD:
 -3.7495096299E-06
  1.0120789134E-06
 -2.1751777282E-06
  2.0948166350E-06
 -4.6509159800E-07
  6.3304618710E-07
 -1.3820761977E-06
  9.5196401419E-07
  4.1659003795E-07
  3.0367691927E-06
 -1.4989513296E-06
  1.1255415031E-06
:RDISP:
 -4.1520005503E-05
  1.6431391902E-05
 -8.3599393961E-05
  1.9815384891E-06
 -1.8570534267E-05
  8.5658698379E-06
  1.1212927062E-05
  3.2419077024E-05
  3.5390512521E-06
  2.8325539951E-05
 -3.0279934660E-05
  7.1494472871E-05
